% Model:              hppc_creat.mph
% Version:            COMSOL 6.0.0.318
% Date:               Nov 13 2023, 11:17
% Table:              表格 3 - 全局计算 2
% SOC                    Time (s)                 comp1.pw1(t)*I_1C (A)    Ecell (V)
1                        0                        0                        4.348889411192418
1                        0.1                      0                        4.348889411192417
1                        0.2                      0                        4.348889411192417
1                        0.30000000000000004      0                        4.348889411192416
1                        0.4                      0                        4.348889411192417
1                        0.5                      0                        4.348889411192416
1                        0.6000000000000001       0                        4.348889411192416
1                        0.7000000000000001       0                        4.348889411192416
1                        0.8                      0                        4.348889411192416
1                        0.9                      0                        4.348889411192416
1                        1                        0                        4.348889411192416
1                        1.1                      0                        4.348889411192416
1                        1.2000000000000002       0                        4.348889411192417
1                        1.3                      0                        4.348889411192416
1                        1.4000000000000001       0                        4.348889411192417
1                        1.5                      0                        4.348889411192416
1                        1.6                      0                        4.348889411192416
1                        1.7000000000000002       0                        4.348889411192416
1                        1.8                      0                        4.348889411192416
1                        1.9000000000000001       0                        4.348889411192416
1                        2                        13.55                    4.323429224634274
1                        2.1                      27.1                     4.298448194406161
1                        2.2                      27.1                     4.297326853182768
1                        2.3000000000000003       27.1                     4.2965393728744266
1                        2.4000000000000004       27.1                     4.295875081197044
1                        2.5                      27.1                     4.295287882073621
1                        2.6                      27.1                     4.294753646010933
1                        2.7                      27.1                     4.2942584374426325
1                        2.8000000000000003       27.1                     4.293793502316389
1                        2.9000000000000004       27.1                     4.293345835792854
1                        3                        27.1                     4.292918215244826
1                        3.1                      27.1                     4.292509159717829
1                        3.2                      27.1                     4.2921163515275
1                        3.3000000000000003       27.1                     4.2917376395478675
1                        3.4000000000000004       27.1                     4.291371245213338
1                        3.5                      27.1                     4.29101573823863
1                        3.6                      27.1                     4.290669965793175
1                        3.7                      27.1                     4.290332986850098
1                        3.8000000000000003       27.1                     4.290004021588184
1                        3.9000000000000004       27.1                     4.289682414357683
1                        4                        27.1                     4.289367606757037
1                        4.1000000000000005       27.1                     4.289059117840767
1                        4.2                      27.1                     4.288756529312346
1                        4.3                      27.1                     4.2884594742389766
1                        4.4                      27.1                     4.288167628299261
1                        4.5                      27.1                     4.287880702889838
1                        4.6000000000000005       27.1                     4.287598439621843
1                        4.7                      27.1                     4.287320605874145
1                        4.800000000000001        27.1                     4.287046991163647
1                        4.9                      27.1                     4.28677740415455
1                        5                        27.1                     4.28651167017267
1                        5.1000000000000005       27.1                     4.286249629124647
1                        5.2                      27.1                     4.285991133743618
1                        5.300000000000001        27.1                     4.285736048100618
1                        5.4                      27.1                     4.2854842463346845
1                        5.5                      27.1                     4.285235611561783
1                        5.6000000000000005       27.1                     4.2849900349331325
1                        5.7                      27.1                     4.284747414820499
1                        5.800000000000001        27.1                     4.284507656106388
1                        5.9                      27.1                     4.284270669563238
1                        6                        27.1                     4.284036371308394
1                        6.1000000000000005       27.1                     4.283804682323775
1                        6.2                      27.1                     4.283575528031055
1                        6.300000000000001        27.1                     4.2833488379147004
1                        6.4                      27.1                     4.283124545186341
1                        6.5                      27.1                     4.282902586485058
1                        6.6000000000000005       27.1                     4.282682901608962
1                        6.7                      27.1                     4.282465433274109
1                        6.800000000000001        27.1                     4.282250126897391
1                        6.9                      27.1                     4.282036930400547
1                        7                        27.1                     4.2818257940327875
1                        7.1000000000000005       27.1                     4.281616670211014
1                        7.2                      27.1                     4.281409513373408
1                        7.300000000000001        27.1                     4.281204279843059
1                        7.4                      27.1                     4.281000927707985
1                        7.5                      27.1                     4.280799416710321
1                        7.6000000000000005       27.1                     4.280599708144426
1                        7.7                      27.1                     4.280401764763245
1                        7.800000000000001        27.1                     4.280205550692174
1                        7.9                      27.1                     4.2800110313496935
1                        8                        27.1                     4.279818173374142
1                        8.1                      27.1                     4.279626944556065
1                        8.200000000000001        27.1                     4.279437313775571
1                        8.3                      27.1                     4.2792492509442965
1                        8.4                      27.1                     4.27906272695152
1                        8.5                      27.1                     4.278877713614085
1                        8.6                      27.1                     4.278694183629778
1                        8.700000000000001        27.1                     4.2785121105339075
1                        8.8                      27.1                     4.278331468658754
1                        8.9                      27.1                     4.278152233095724
1                        9                        27.1                     4.277974379659924
1                        9.1                      27.1                     4.277797884857013
1                        9.200000000000001        27.1                     4.2776227258521216
1                        9.3                      27.1                     4.277448880442373
1                        9.4                      27.1                     4.27727632702676
1                        9.5                      27.1                     4.277105044580484
1                        9.600000000000001        27.1                     4.276935012631576
1                        9.700000000000001        27.1                     4.276766211238193
1                        9.8                      27.1                     4.276598620967104
1                        9.9                      27.1                     4.276432222873357
1                        10                       13.55                    4.298555438767902
1                        10.100000000000001       0                        4.325499651539967
1                        10.200000000000001       0                        4.326470659599037
1                        10.3                     0                        4.327108236604002
1                        10.4                     0                        4.327623069491364
1                        10.5                     0                        4.328061355333336
1                        10.600000000000001       0                        4.328447302294535
1                        10.700000000000001       0                        4.328794902678611
1                        10.8                     0                        4.329112949916936
1                        10.9                     0                        4.3294073542567
1                        11                       0                        4.329688039613161
1                        11.100000000000001       0                        4.32995260636306
1                        11.200000000000001       0                        4.330202067953189
1                        11.3                     0                        4.330438181992617
1                        11.4                     0                        4.330662637283515
1                        11.5                     0                        4.330876864640604
1                        11.600000000000001       0                        4.331082037089542
1                        11.700000000000001       0                        4.331279114726145
1                        11.8                     0                        4.331468890818735
1                        11.9                     0                        4.3316520290621865
1                        12                       -13.55000000019718       4.356804649452279
1                        12.100000000000001       -27.1                    4.381759085770501
1                        12.200000000000001       -27.1                    4.383080374525602
1                        12.3                     -27.1                    4.3840680734899475
1                        12.4                     -27.1                    4.384928766571414
1                        12.5                     -27.1                    4.38570794828486
1                        12.600000000000001       -27.1                    4.386429730892742
1                        12.700000000000001       -27.1                    4.387108212781443
1                        12.8                     -27.1                    4.3877523558529345
1                        12.9                     -27.1                    4.388368252085353
1                        13                       -27.1                    4.388967446843442
1                        13.100000000000001       -27.1                    4.389546641919996
1                        13.200000000000001       -27.1                    4.390106658565476
1                        13.3                     -27.1                    4.390649293191026
1                        13.4                     -27.1                    4.3911763437501
1                        13.5                     -27.1                    4.391689366829505
1                        13.600000000000001       -27.1                    4.3921896603729484
1                        13.700000000000001       -27.1                    4.39267830334171
1                        13.8                     -27.1                    4.393156200667318
1                        13.9                     -27.1                    4.393624120686634
1                        14                       -27.1                    4.394082723811709
1                        14.100000000000001       -27.1                    4.394532584040656
1                        14.200000000000001       -27.1                    4.3949742052113105
1                        14.3                     -27.1                    4.395408033394702
1                        14.4                     -27.1                    4.395834466507904
1                        14.5                     -27.1                    4.3962538619126645
1                        14.600000000000001       -27.1                    4.3966665424723965
1                        14.700000000000001       -27.1                    4.397072801446299
1                        14.8                     -27.1                    4.397472906644375
1                        14.9                     -27.1                    4.39786710379093
1                        15                       -27.1                    4.398255619022188
1                        15.100000000000001       -27.1                    4.398638661257455
1                        15.200000000000001       -27.1                    4.399016424176562
1                        15.3                     -27.1                    4.399389087895972
1                        15.4                     -27.1                    4.399756820418954
1                        15.5                     -27.1                    4.400119778873175
1                        15.600000000000001       -27.1                    4.4004781105727755
1                        15.700000000000001       -27.1                    4.400831953962778
1                        15.8                     -27.1                    4.401181439440221
1                        15.9                     -27.1                    4.401526690081318
1                        16                       -27.1                    4.40186782228197
1                        16.1                     -27.1                    4.402204946321003
1                        16.2                     -27.1                    4.402538166867444
1                        16.3                     -27.1                    4.402867583433632
1                        16.400000000000002       -27.1                    4.403193290767403
1                        16.5                     -27.1                    4.4035153792040465
1                        16.6                     -27.1                    4.403833934988298
1                        16.7                     -27.1                    4.404149040565949
1                        16.8                     -27.1                    4.404460774847519
1                        16.900000000000002       -27.1                    4.404769213446392
1                        17                       -27.1                    4.405074428897641
1                        17.1                     -27.1                    4.405376490854819
1                        17.2                     -27.1                    4.405675466272866
1                        17.3                     -27.1                    4.40597141957184
1                        17.400000000000002       -27.1                    4.406264412790793
1                        17.5                     -27.1                    4.4065545057261755
1                        17.6                     -27.1                    4.406841756061813
1                        17.7                     -27.1                    4.407126219486196
1                        17.8                     -27.1                    4.407407949803203
1                        17.900000000000002       -27.1                    4.407686999033134
1                        18                       -27.1                    4.407963417506369
1                        18.1                     -27.1                    4.408237253951738
1                        18.2                     -27.1                    4.408508555576058
1                        18.3                     -27.1                    4.408777368141007
1                        18.400000000000002       -27.1                    4.409043736032749
1                        18.5                     -27.1                    4.409307702327491
1                        18.6                     -27.1                    4.409569308853757
1                        18.7                     -27.1                    4.409828596248328
1                        18.8                     -27.1                    4.410085604011193
1                        18.900000000000002       -27.1                    4.410340370555591
1                        19                       -27.1                    4.410592933254673
1                        19.1                     -27.1                    4.410843328487319
1                        19.200000000000003       -27.1                    4.411091591678707
1                        19.3                     -27.1                    4.411337757339915
1                        19.400000000000002       -27.1                    4.4115818591055636
1                        19.5                     -27.1                    4.411823929768484
1                        19.6                     -27.1                    4.41206400131223
1                        19.700000000000003       -27.1                    4.412302104943781
1                        19.8                     -27.1                    4.4125382711217
1                        19.900000000000002       -27.1                    4.412772529584274
1                        20                       -27.1                    4.4130049093767205
0.9                      0                        0                        4.188403411884744
0.9                      0.1                      0                        4.188403411884743
0.9                      0.2                      0                        4.188403411884744
0.9                      0.30000000000000004      0                        4.188403411884744
0.9                      0.4                      0                        4.188403411884744
0.9                      0.5                      0                        4.188403411884744
0.9                      0.6000000000000001       0                        4.188403411884744
0.9                      0.7000000000000001       0                        4.188403411884744
0.9                      0.8                      0                        4.188403411884744
0.9                      0.9                      0                        4.188403411884744
0.9                      1                        0                        4.188403411884744
0.9                      1.1                      0                        4.188403411884744
0.9                      1.2000000000000002       0                        4.188403411884744
0.9                      1.3                      0                        4.188403411884744
0.9                      1.4000000000000001       0                        4.188403411884744
0.9                      1.5                      0                        4.188403411884744
0.9                      1.6                      0                        4.188403411884744
0.9                      1.7000000000000002       0                        4.188403411884744
0.9                      1.8                      0                        4.188403411884744
0.9                      1.9000000000000001       0                        4.188403411884744
0.9                      2                        13.55                    4.167722434655201
0.9                      2.1                      27.1                     4.147020903880314
0.9                      2.2                      27.1                     4.1462795775419155
0.9                      2.3000000000000003       27.1                     4.145750281378829
0.9                      2.4000000000000004       27.1                     4.145302619841483
0.9                      2.5                      27.1                     4.144906536870388
0.9                      2.6                      27.1                     4.144545919841697
0.9                      2.7                      27.1                     4.144211447501419
0.9                      2.8000000000000003       27.1                     4.143897311986416
0.9                      2.9000000000000004       27.1                     4.143594797917512
0.9                      3                        27.1                     4.14330568817013
0.9                      3.1                      27.1                     4.143028941155029
0.9                      3.2                      27.1                     4.142762972172309
0.9                      3.3000000000000003       27.1                     4.142506320476595
0.9                      3.4000000000000004       27.1                     4.142257784303231
0.9                      3.5                      27.1                     4.1420164023528665
0.9                      3.6                      27.1                     4.141781404479365
0.9                      3.7                      27.1                     4.141552166180511
0.9                      3.8000000000000003       27.1                     4.1413281734989384
0.9                      3.9000000000000004       27.1                     4.141108997300808
0.9                      4                        27.1                     4.140894274568392
0.9                      4.1000000000000005       27.1                     4.140683694656707
0.9                      4.2                      27.1                     4.140476989029788
0.9                      4.3                      27.1                     4.140273923552458
0.9                      4.4                      27.1                     4.140074293391674
0.9                      4.5                      27.1                     4.13987791754077
0.9                      4.6000000000000005       27.1                     4.139684634212607
0.9                      4.7                      27.1                     4.139494298531929
0.9                      4.800000000000001        27.1                     4.13930677937544
0.9                      4.9                      27.1                     4.139121958360434
0.9                      5                        27.1                     4.138939727092913
0.9                      5.1000000000000005       27.1                     4.138759986831225
0.9                      5.2                      27.1                     4.13858264637438
0.9                      5.300000000000001        27.1                     4.138407622230453
0.9                      5.4                      27.1                     4.138234836468185
0.9                      5.5                      27.1                     4.138064217143434
0.9                      5.6000000000000005       27.1                     4.137895697099638
0.9                      5.7                      27.1                     4.137729213489083
0.9                      5.800000000000001        27.1                     4.1375647077736
0.9                      5.9                      27.1                     4.137402124498431
0.9                      6                        27.1                     4.137241411800776
0.9                      6.1000000000000005       27.1                     4.137082520714505
0.9                      6.2                      27.1                     4.136925404617605
0.9                      6.300000000000001        27.1                     4.136770019912755
0.9                      6.4                      27.1                     4.136616324686138
0.9                      6.5                      27.1                     4.136464279278903
0.9                      6.6000000000000005       27.1                     4.136313845947702
0.9                      6.7                      27.1                     4.136164988725119
0.9                      6.800000000000001        27.1                     4.136017672951875
0.9                      6.9                      27.1                     4.135871865917964
0.9                      7                        27.1                     4.135727536027727
0.9                      7.1000000000000005       27.1                     4.135584652841122
0.9                      7.2                      27.1                     4.135443187357875
0.9                      7.300000000000001        27.1                     4.135303111627136
0.9                      7.4                      27.1                     4.135164398755148
0.9                      7.5                      27.1                     4.135027022633442
0.9                      7.6000000000000005       27.1                     4.134890958375539
0.9                      7.7                      27.1                     4.134756181901108
0.9                      7.800000000000001        27.1                     4.1346226697213835
0.9                      7.9                      27.1                     4.1344903992611
0.9                      8                        27.1                     4.134359348689868
0.9                      8.1                      27.1                     4.134229496892722
0.9                      8.200000000000001        27.1                     4.134100823344185
0.9                      8.3                      27.1                     4.133973308033959
0.9                      8.4                      27.1                     4.133846931670026
0.9                      8.5                      27.1                     4.133721675637018
0.9                      8.6                      27.1                     4.133597521613871
0.9                      8.700000000000001        27.1                     4.133474451785559
0.9                      8.8                      27.1                     4.133352448954761
0.9                      8.9                      27.1                     4.133231496300378
0.9                      9                        27.1                     4.133111577516274
0.9                      9.1                      27.1                     4.132992676659168
0.9                      9.200000000000001        27.1                     4.132874778116302
0.9                      9.3                      27.1                     4.132757866682346
0.9                      9.4                      27.1                     4.132641927701317
0.9                      9.5                      27.1                     4.132526946723314
0.9                      9.600000000000001        27.1                     4.1324129095874005
0.9                      9.700000000000001        27.1                     4.132299802468296
0.9                      9.8                      27.1                     4.1321876119512035
0.9                      9.9                      27.1                     4.132076324848675
0.9                      10                       13.55                    4.1509105972880285
0.9                      10.100000000000001       0                        4.1724719555435925
0.9                      10.200000000000001       0                        4.173105954912975
0.9                      10.3                     0                        4.173532032674296
0.9                      10.4                     0                        4.173878160674251
0.9                      10.5                     0                        4.174173784197934
0.9                      10.600000000000001       0                        4.174434740673845
0.9                      10.700000000000001       0                        4.174670317366987
0.9                      10.8                     0                        4.174886393605
0.9                      10.9                     0                        4.175086933687849
0.9                      11                       0                        4.1752784966480325
0.9                      11.100000000000001       0                        4.175459536716616
0.9                      11.200000000000001       0                        4.175630754928482
0.9                      11.3                     0                        4.175793334533024
0.9                      11.4                     0                        4.175948404132044